# This file was created 2020-05-28 12:57:10 with MYPROG by wolfgang
18 atoms
14 bonds
12 angles
10 dihedrals

5 atom types
3 bond types
4 angle types
3 dihedral types

0.0 11.56208483 xlo xhi
0.0 11.56208483 ylo yhi
0.0 11.56208483 zlo zhi

Atoms # full

         1          1          2   0.210800   5.189546  17.278044  15.323652 # ethyl
         2          1          1  -0.210800   3.019209  17.258863  11.985085 # amide
         3          1          2   0.210800   3.739685  14.241493   8.588109 # ethyl
         4          1          3   0.000000  11.741522  14.408479  15.319839 # PA6head
         5          1          1  -0.210800   8.582889  15.375457  16.060041 # amide
         6          1          1  -0.210800   6.370699  12.714660   6.264850 # amide
         7          1          2   0.210800   8.059937  10.233225   3.512287 # ethyl
         8          1          4   0.000000  10.203105   7.702137   1.298040 # PA6tail
         9          2          2   0.210800   7.126372  13.592649   0.931054 # ethyl
        10          2          1  -0.210800   3.819081  12.097486   2.839391 # amide
        11          2          2   0.210800   1.846750   8.742663   4.301305 # ethyl
        12          2          3   0.000000   7.489430  20.092855  -2.710213 # PA6head
        13          2          1  -0.210800   7.933875  16.854567  -0.934044 # amide
        14          2          1  -0.210800   0.840455   7.320784   7.076339 # amide
        15          2          2   0.210800   2.592899   9.396189   9.835577 # ethyl
        16          2          4  -0.000000   0.489540  12.559154   9.276220 # PA6tail
        17          3          5   0.000000  -0.349675   4.667421   9.127679 # water
        18          4          5   0.000000   9.421897   1.942319   7.210178 # water

Bonds

         1          1          1          5 # 1-2
         2          1          1          2 # 1-2
         3          1          2          3 # 1-2
         4          1          3          6 # 1-2
         5          2          4          5 # 1-3
         6          1          6          7 # 1-2
         7          3          7          8 # 2-4
         8          1          9         10 # 1-2
         9          1          9         13 # 1-2
        10          1         10         11 # 1-2
        11          1         11         14 # 1-2
        12          2         12         13 # 1-3
        13          1         14         15 # 1-2
        14          3         15         16 # 2-4

Angles

         1          1          5          1          2 # 1-2-1
         2          3          1          2          3 # 2-1-2
         3          1          2          3          6 # 1-2-1
         4          4          1          5          4 # 2-1-3
         5          3          3          6          7 # 2-1-2
         6          2          6          7          8 # 1-2-4
         7          1         10          9         13 # 1-2-1
         8          3          9         10         11 # 2-1-2
         9          1         10         11         14 # 1-2-1
        10          4          9         13         12 # 2-1-3
        11          3         11         14         15 # 2-1-2
        12          2         14         15         16 # 1-2-4

Dihedrals

         1          2          2          1          5          4 # 1-2-1-3
         2          1          5          1          2          3 # 1-2-1-2
         3          1          6          3          2          1 # 1-2-1-2
         4          1          2          3          6          7 # 1-2-1-2
         5          3          3          6          7          8 # 2-1-2-4
         6          1         13          9         10         11 # 1-2-1-2
         7          2         10          9         13         12 # 1-2-1-3
         8          1         14         11         10          9 # 1-2-1-2
         9          1         10         11         14         15 # 1-2-1-2
        10          3         11         14         15         16 # 2-1-2-4
