ITEM: TIMESTEP
0
ITEM: NUMBER OF ATOMS
18
ITEM: BOX BOUNDS pp pp pp
0.0000000000000000e+00 1.1562084830000000e+01
0.0000000000000000e+00 1.1562084830000000e+01
0.0000000000000000e+00 1.1562084830000000e+01
ITEM: ATOMS id type x y z fx fy fz ix iy iz
1 2   5.230208   5.735808   3.682807 -16.054475 -11.413830  15.071440 0 1 1
2 1   2.674998   5.363622   0.155563   0.165230  18.182500  19.589502 0 1 1
3 2   3.831777   2.695159   8.597296  15.334550  22.788383 -15.214200 0 1 0
4 3   0.117500   2.798350   3.873416  -1.799519  -5.583635   6.293633 1 1 1
5 1   8.555351   4.171545   4.974749  20.076410  11.883450 -23.003430 0 1 1
6 1   5.942327   0.766954   5.990413 -17.317370 -44.497639 -12.058270 0 1 0
7 2   8.057056  10.221591   3.539017   9.549780  13.093596   9.765400 0 0 0
8 4  10.479853   7.820595   1.009517   5.027480  11.222890  -0.780000 0 0 0
9 2   7.058431   2.066533   0.929912  13.384580 -18.363970   7.458095 0 1 0
10 1   3.851764   0.052419   2.505894  -9.690918   9.919700 -35.595370 0 1 0
11 2   1.821512   8.788606   4.381761   1.763360 -17.952928  36.578140 0 0 0
12 3   7.518889   8.607652   8.914303  11.881908  -2.800450  -9.906304 0 1 -1
13 1   7.583250   4.894173  10.826224 -22.962537  13.796051  13.352260 0 1 -1
14 1   1.395116   7.059040   7.032093 -20.324950  25.006530 -21.906190 0 0 0
15 2   2.511576   9.483819   9.753627  20.621890 -34.533470  -5.352023 0 0 0
16 4   0.398050   1.052909   8.937055  -6.114044   7.018979   7.212000 0 1 0
17 5  10.867926   4.714079   9.178166   2.186470   2.920880   4.274540 -1 0 0
18 5   9.375749   1.627144   7.062832  -5.727790  -0.686840   4.220990 0 0 0
ITEM: TIMESTEP
1000
ITEM: NUMBER OF ATOMS
18
ITEM: BOX BOUNDS pp pp pp
0.0000000000000000e+00 1.1562084830000000e+01
0.0000000000000000e+00 1.1562084830000000e+01
0.0000000000000000e+00 1.1562084830000000e+01
ITEM: ATOMS id type x y z fx fy fz ix iy iz
1 2   5.071810   5.467720   3.643526  -6.762410  10.372780  -8.760928 0 1 1
2 1   2.663549   5.697625  11.438288   2.301930   3.565440  37.270265 0 1 0
3 2   3.693799   2.986379   8.498747  -8.783026  -0.765564 -16.495755 0 1 0
4 3   0.343014   2.727622   3.965830  12.779200  -5.617020   0.533110 1 1 1
5 1   8.607341   4.045265   4.901697  -5.081720  -7.765290 -19.867058 0 1 1
6 1   5.858008   0.753072   6.130663  17.949010 -27.725830   1.732764 0 1 0
7 2   8.428422   9.947963   3.979877   7.054510  55.204735  10.685910 0 0 0
8 4  10.341884   7.587537   1.067232 -17.796433 -20.288247  -3.022784 0 0 0
9 2   6.958674   2.056821   0.743112   7.646050  25.811043  -1.472760 0 1 0
10 1   3.957286   0.005916   2.448834   6.244020   7.502295   4.001750 0 1 0
11 2   1.761838   8.490509   4.165316   7.404260  -6.849940  11.550181 0 0 0
12 3   7.587541   9.029156   8.960393   8.675550   4.003407  23.587737 0 1 -1
13 1   7.422153   5.109793  10.591682 -32.014840 -34.570970 -19.152141 0 1 -1
14 1   1.468362   7.285982   7.127957  -6.381856  -2.999910 -27.183470 0 0 0
15 2   2.604924   9.402602   9.654995   5.389030  26.537368   8.790040 0 0 0
16 4   0.289476   0.906268   9.010581  -2.490857 -39.592790  -1.679990 0 1 0
17 5  10.859265   4.417937   9.880586   5.723990  10.288600   1.319430 -1 0 0
18 5   9.069553   1.887171   7.286558  -1.856240   2.889599  -1.836510 0 0 0
ITEM: TIMESTEP
2000
ITEM: NUMBER OF ATOMS
18
ITEM: BOX BOUNDS pp pp pp
0.0000000000000000e+00 1.1562084830000000e+01
0.0000000000000000e+00 1.1562084830000000e+01
0.0000000000000000e+00 1.1562084830000000e+01
ITEM: ATOMS id type x y z fx fy fz ix iy iz
1 2   5.498372   5.934562   3.417705  -9.644724 -18.766810  29.648128 0 1 1
2 1   2.556996   5.398450   0.141086  -6.023420 -17.425250 -13.460210 0 1 1
3 2   3.450347   2.787947   8.506305  25.023826  10.963862  -2.332840 0 1 0
4 3   0.249777   2.595592   3.827446  18.530614   4.387360  -0.664334 1 1 1
5 1   8.653570   4.115454   4.405939   0.833833   8.181880  -7.088675 0 1 1
6 1   5.710315   0.264949   6.435704  -4.014210  -2.521822   3.604920 0 1 0
7 2   8.258109  10.066796   3.779512 -14.757369   7.168670 -29.588878 0 0 0
8 4  10.513072   7.645791   1.282089   4.472650   5.401210  14.659782 0 0 0
9 2   7.046644   2.074068   0.588271  -2.723202  12.881810 -12.233510 0 1 0
10 1   4.253357   0.114345   2.412667   4.695847   5.958610   1.487460 0 1 0
11 2   1.993186   8.707393   4.089612   4.039148 -14.030543  -2.371971 0 0 0
12 3   7.403622   9.056627   9.453677   8.697974 -13.172550  28.427870 0 1 -1
13 1   7.531441   4.989545  10.428998 -31.067780   9.318350 -28.236880 0 1 -1
14 1   1.688281   7.601757   7.136087  12.174170   1.959585  30.672812 0 0 0
15 2   2.244193   9.694561  10.110519 -10.992954 -15.602360  -6.081850 0 0 0
16 4   0.086762   0.669420   8.774114 -17.817449   6.728680  -4.050831 0 1 0
17 5  11.007338   4.397269   9.954946   9.591800   3.631682  -1.754930 -1 0 0
18 5   8.902255   1.375268   6.834453   8.980748   4.937440  -0.635839 0 0 0
ITEM: TIMESTEP
3000
ITEM: NUMBER OF ATOMS
18
ITEM: BOX BOUNDS pp pp pp
0.0000000000000000e+00 1.1562084830000000e+01
0.0000000000000000e+00 1.1562084830000000e+01
0.0000000000000000e+00 1.1562084830000000e+01
ITEM: ATOMS id type x y z fx fy fz ix iy iz
1 2   5.187039   5.152886   3.899490  25.634050  11.604500 -22.556267 0 1 1
2 1   3.029071   5.503356   0.018430 -34.034230  -3.586636   1.557560 0 1 1
3 2   3.381378   2.957647   8.177650  44.309000 -30.426170  23.461590 0 1 0
4 3   0.256791   2.637018   3.594761   2.681333   6.610470   0.792536 1 1 1
5 1   8.465463   4.008433   4.608204 -13.930074  -0.668910  -5.435370 0 1 1
6 1   5.484749   0.314304   6.128180 -21.885920  16.037360  -6.442247 0 1 0
7 2   8.215199   9.625573   3.987521 -14.832620  35.926919  11.906005 0 0 0
8 4  10.606681   7.697983   1.285941  20.921530 -18.221255  -8.130017 0 0 0
9 2   6.919534   2.274607   0.270993 -13.314987 -21.249416   5.861070 0 1 0
10 1   4.490160  11.436060   2.316001  12.298908  -0.391397  24.840540 0 0 0
11 2   2.111019   8.599737   4.297491  10.779660   8.210590 -51.422856 0 0 0
12 3   7.512843   9.309018   8.975913  10.892920   5.193700   0.719578 0 1 -1
13 1   7.731274   5.282895  10.071341 -30.894240  -6.959290  -3.524320 0 1 -1
14 1   1.611646   7.759578   7.597232  18.507560   9.347345  23.163023 0 0 0
15 2   2.156499  10.015987  10.477259  -9.720820 -13.097929  38.096040 0 0 0
16 4  11.337170   0.781760   9.147470  -4.244120   0.907620 -31.596300 -1 1 0
17 5  11.237009   4.209603  10.464148   1.152560   2.990190  -0.755490 -1 0 0
18 5   9.216910   1.019763   6.707554  -4.320910  -2.227110  -0.535600 0 0 0
ITEM: TIMESTEP
4000
ITEM: NUMBER OF ATOMS
18
ITEM: BOX BOUNDS pp pp pp
0.0000000000000000e+00 1.1562084830000000e+01
0.0000000000000000e+00 1.1562084830000000e+01
0.0000000000000000e+00 1.1562084830000000e+01
ITEM: ATOMS id type x y z fx fy fz ix iy iz
1 2   5.339824   5.593957   3.535319 -13.254000  15.346888 -29.049730 0 1 1
2 1   2.957007   5.436893  11.150870  -6.544710 -11.754230  14.468795 0 1 0
3 2   3.289532   2.742346   7.959089  -2.496450  18.927365   1.006300 0 1 0
4 3   0.436135   2.550018   3.716280 -16.108321  -4.245193  -7.701690 1 1 1
5 1   8.493948   4.256025   4.923456  17.011010 -21.020790  25.424230 0 1 1
6 1   5.368547  11.542998   6.298946   6.839830  24.679169   8.775640 0 0 0
7 2   8.043323   9.665970   3.989466  10.163690 -17.335130  -3.097644 0 0 0
8 4  10.525957   7.672296   1.328325  -7.738730   2.001650  -8.341380 0 0 0
9 2   7.223690   2.185503   0.464609  17.861790 -28.546140  11.386273 0 1 0
10 1   4.695083   0.059236   2.500446 -16.647660 -17.952703  -0.180607 0 1 0
11 2   1.913759   8.695040   3.979463  -8.874760  14.935910  -0.753201 0 0 0
12 3   7.360907   9.255861   9.457329  -8.819538  -7.078385  -2.592480 0 1 -1
13 1   7.534108   4.999700  10.136311  25.361250  38.737830  -2.326970 0 1 -1
14 1   1.781993   7.692307   7.317572  -1.298240  -9.954210 -12.495650 0 0 0
15 2   2.218663   9.990005  10.238899  35.190537   7.512549  13.279735 0 0 0
16 4  11.296038   1.004232   9.402278 -22.079687 -10.468610  -7.348310 -1 1 0
17 5  11.120419   4.287005  10.051777  -5.853840  10.316310  -0.449300 -1 0 0
18 5   9.384044   1.096691   6.587651  -2.712000  -4.102110  -0.004170 0 0 0
ITEM: TIMESTEP
5000
ITEM: NUMBER OF ATOMS
18
ITEM: BOX BOUNDS pp pp pp
0.0000000000000000e+00 1.1562084830000000e+01
0.0000000000000000e+00 1.1562084830000000e+01
0.0000000000000000e+00 1.1562084830000000e+01
ITEM: ATOMS id type x y z fx fy fz ix iy iz
1 2   5.249797   5.303221   3.426594  14.506350  10.651390   8.399841 0 1 1
2 1   2.711126   5.486117  11.335086 -18.096270  -6.826659 -39.996370 0 1 0
3 2   3.705434   2.712281   8.404029  17.669090  17.331300  14.549540 0 1 0
4 3   0.706158   2.683371   4.561367  21.397542  -5.594180  18.638300 1 1 1
5 1   8.732413   4.470394   4.565333 -32.625590 -10.550720 -18.868950 0 1 1
6 1   5.783299   0.196397   6.051905 -13.135840 -27.217410  14.282340 0 1 0
7 2   8.078039   9.623161   3.734034   7.949358  36.322784   9.491575 0 0 0
8 4  10.607714   7.449944   1.230134   6.540320 -31.143010  -7.041325 0 0 0
9 2   7.374457   1.866850   0.552663  -2.601670  12.570775 -13.645405 0 1 0
10 1   4.142978   0.244138   2.325467  -8.087690  -0.061534  -7.085130 0 1 0
11 2   2.101882   8.806535   3.887941   5.319310   8.772530   6.965527 0 0 0
12 3   7.113018   9.020523   9.366678   4.567196  -6.491564  -0.398660 0 1 -1
13 1   7.306201   4.906755  10.617918   6.960060   3.763130   2.907276 0 1 -1
14 1   1.733040   7.935648   7.335544 -11.602010  -4.054563   3.459230 0 0 0
15 2   2.083402   9.909013  10.131771  17.110630   2.966431  10.146115 0 0 0
16 4  11.155687   1.031996   9.001039 -10.043530  -0.967260   1.252180 -1 1 0
17 5  10.988700   4.803287   9.633881  -5.927050   0.777800  -1.320000 -1 0 0
18 5   9.197201   1.077334   6.019864   0.100000  -0.249360  -1.736110 0 0 0
ITEM: TIMESTEP
6000
ITEM: NUMBER OF ATOMS
18
ITEM: BOX BOUNDS pp pp pp
0.0000000000000000e+00 1.1562084830000000e+01
0.0000000000000000e+00 1.1562084830000000e+01
0.0000000000000000e+00 1.1562084830000000e+01
ITEM: ATOMS id type x y z fx fy fz ix iy iz
1 2   4.885605   5.482614   3.669203  14.820130  11.714650 -29.628108 0 1 1
2 1   2.818637   5.413385  11.262548 -27.580260 -15.391652  18.846240 0 1 0
3 2   4.028399   2.597111   8.385294  20.439790  19.361770 -13.589070 0 1 0
4 3   0.471365   2.746636   4.530323 -15.309560   8.222986  -9.159140 1 1 1
5 1   8.288594   4.771164   4.970763  12.652120 -22.481510  29.337010 0 1 1
6 1   5.994448   0.019595   6.123004 -22.942459  -6.116518   5.768770 0 1 0
7 2   8.121715   9.550251   3.142304  -1.864190  23.062025   0.651989 0 0 0
8 4  10.556510   7.125379   0.626895   1.584960 -25.916520   4.957700 0 0 0
9 2   7.240704   2.220879   0.531867 -17.674980  11.100831   4.602550 0 1 0
10 1   4.422712  11.468838   2.577567   0.596890  11.406797 -12.931184 0 0 0
11 2   1.720685   8.799390   4.261321   4.254655 -27.562376  18.947100 0 0 0
12 3   7.509901   9.263212   9.260660 -12.104810   9.212838  -7.071412 0 1 -1
13 1   7.447630   5.294705  10.206273  37.863980  -8.836120   3.030080 0 1 -1
14 1   1.393006   7.581929   7.693689  -3.795160   5.680080 -14.002950 0 0 0
15 2   2.280826   9.854069  10.332723  -8.391463  15.670560   6.843770 0 0 0
16 4  11.340005   0.965160   9.211042   7.094480 -10.704310  -4.550810 -1 1 0
17 5  10.948927   4.703882   9.451250   6.160600   1.392500  -2.872000 -1 0 0
18 5   9.272514   1.150148   5.553275   4.195020   0.183700   0.819746 0 0 0
ITEM: TIMESTEP
7000
ITEM: NUMBER OF ATOMS
18
ITEM: BOX BOUNDS pp pp pp
0.0000000000000000e+00 1.1562084830000000e+01
0.0000000000000000e+00 1.1562084830000000e+01
0.0000000000000000e+00 1.1562084830000000e+01
ITEM: ATOMS id type x y z fx fy fz ix iy iz
1 2   4.900788   5.482067   3.893296 -22.495420  10.646130  14.859327 0 1 1
2 1   3.116119   5.271283  11.472069  24.721381   0.786540 -40.893090 0 1 0
3 2   3.828712   2.554692   8.274356  20.339750   6.974697  30.379681 0 1 0
4 3   0.466756   3.032531   4.064738  26.547160  -0.203671  22.893470 1 1 1
5 1   8.151229   4.482478   5.121674 -13.514650  -5.017016 -28.047114 0 1 1
6 1   5.594028  11.434888   5.960698 -31.565340 -47.510207  10.427806 0 0 0
7 2   7.999698   9.402134   3.364580  -3.091900  13.358130 -14.906610 0 0 0
8 4  10.813515   7.259013   0.898402 -11.897860  18.520422   3.030680 0 0 0
9 2   7.493525   2.233546   0.851487  17.053040  25.736010   1.825670 0 1 0
10 1   4.489233   0.228215   2.457689 -40.287050 -13.820790 -14.548160 0 1 0
11 2   1.684947   8.918364   3.807185  31.119819  22.549300  32.805050 0 0 0
12 3   6.900781   8.904618   9.446876  16.211840  -0.220401   3.045144 0 1 -1
13 1   7.797240   5.093113  10.405451  -9.805655 -22.867350   7.767652 0 1 -1
14 1   1.508434   8.068255   7.271918 -34.272800  -1.534360 -43.903550 0 0 0
15 2   2.252211   9.731141  10.360003  26.639910   3.733940  18.787570 0 0 0
16 4   0.080118   1.045709   9.219683  -0.502274 -10.179050  -4.269320 0 1 0
17 5  11.155610   5.139370   8.929743   4.353740  -3.546053   2.812050 -1 0 0
18 5   9.135603   0.781274   6.021696   0.445900   2.593500  -2.065700 0 0 0
ITEM: TIMESTEP
8000
ITEM: NUMBER OF ATOMS
18
ITEM: BOX BOUNDS pp pp pp
0.0000000000000000e+00 1.1562084830000000e+01
0.0000000000000000e+00 1.1562084830000000e+01
0.0000000000000000e+00 1.1562084830000000e+01
ITEM: ATOMS id type x y z fx fy fz ix iy iz
1 2   5.139637   5.376998   3.650755 -32.527310  23.625230  -0.566370 0 1 1
2 1   2.967697   5.488187  11.253127   5.992430 -24.499300  -4.150950 0 1 0
3 2   3.817305   2.588131   8.296691  29.658360   5.508022  13.412267 0 1 0
4 3   0.471628   3.032544   4.166540  14.735690  -1.329130  10.066330 1 1 1
5 1   8.495480   4.348213   5.125707  14.353647 -19.459434 -27.022340 0 1 1
6 1   5.720249  11.438863   5.956393 -18.642843   8.575150  11.005790 0 0 0
7 2   8.083677   9.330772   3.483149 -11.207270   4.723533  -5.886010 0 0 0
8 4  10.543754   7.108729   0.947493   1.769190  -9.294860   2.018086 0 0 0
9 2   7.714322   2.253665   1.093581 -14.367027 -36.438360  -7.848840 0 1 0
10 1   4.421171   0.158562   2.310057  -5.611410 -19.689840   3.109050 0 1 0
11 2   1.941745   8.748202   3.956311   4.875260  29.551656 -28.283940 0 0 0
12 3   7.052272   9.579731   9.350665  10.558312 -23.691312   8.680922 0 1 -1
13 1   7.575944   5.203402  10.551118 -15.231650  63.219257   1.371020 0 1 -1
14 1   1.528930   7.651478   7.296303 -27.037700  -0.705520  29.206414 0 0 0
15 2   2.100583   9.902376  10.124444  56.597528 -27.870262  15.969060 0 0 0
16 4  11.092995   0.945651   9.148356 -16.739370  17.799210 -23.103560 -1 1 0
17 5  10.955322   4.857857   9.484144   1.909150   1.886400  -1.341326 -1 0 0
18 5   9.240321   0.476375   5.972755   0.915080   8.090360   3.364160 0 0 0
ITEM: TIMESTEP
9000
ITEM: NUMBER OF ATOMS
18
ITEM: BOX BOUNDS pp pp pp
0.0000000000000000e+00 1.1562084830000000e+01
0.0000000000000000e+00 1.1562084830000000e+01
0.0000000000000000e+00 1.1562084830000000e+01
ITEM: ATOMS id type x y z fx fy fz ix iy iz
1 2   5.128572   5.755925   3.731607 -23.150981   8.316552  11.015080 0 1 1
2 1   3.049401   5.379588  11.435790   2.827340 -18.153768  21.473280 0 1 0
3 2   3.730312   2.509773   8.557512  26.224233  -6.056950 -32.255770 0 1 0
4 3   0.501199   2.121766   4.581790  -1.185387  18.542513  -9.134860 1 1 1
5 1   8.591131   4.643186   5.024841  19.890815  -8.639911 -11.660784 0 1 1
6 1   5.607582   0.328530   5.824593 -37.563170  17.073493  15.815200 0 1 0
7 2   8.327480   9.892465   3.356512   5.131760 -15.139554   4.379670 0 0 0
8 4  10.672390   7.303735   1.058611   3.835054  -6.493360 -11.486040 0 0 0
9 2   7.512982   2.369820   1.017302 -38.024541 -23.905153  -4.003510 0 1 0
10 1   4.372018   0.263353   2.092489  12.733212   0.705590  14.919050 0 1 0
11 2   1.967495   8.747387   3.755896  24.216665  -1.948750  21.378990 0 0 0
12 3   6.864330   9.174890   9.006980  -0.720370  18.505571  -2.248790 0 1 -1
13 1   7.768570   5.144510  10.341398  -0.277920  -0.521810   6.310390 0 1 -1
14 1   1.670357   7.578366   7.466623   8.306560  21.175710 -16.004110 0 0 0
15 2   1.927464   9.850471  10.364309 -18.425170 -17.052938  -8.822234 0 0 0
16 4  11.034391   0.714390   8.987629   4.857810   9.782420   1.740772 -1 1 0
17 5  11.234490   4.568337   9.308421   7.269430   2.135720  -0.627930 -1 0 0
18 5   8.890822   1.334485   6.441741   4.054400   1.674470  -0.788780 0 0 0
ITEM: TIMESTEP
10000
ITEM: NUMBER OF ATOMS
18
ITEM: BOX BOUNDS pp pp pp
0.0000000000000000e+00 1.1562084830000000e+01
0.0000000000000000e+00 1.1562084830000000e+01
0.0000000000000000e+00 1.1562084830000000e+01
ITEM: ATOMS id type x y z fx fy fz ix iy iz
1 2   5.197461   5.693126   3.822486 -44.536810  30.147470  21.784490 0 1 1
2 1   3.255654   5.295867  11.498681  21.665300 -25.342123 -12.293643 0 1 0
3 2   3.648087   2.409886   8.275770 -12.886380  14.404570  11.652680 0 1 0
4 3   0.352883   2.257165   4.326213  -4.808330   7.810440   1.667468 1 1 1
5 1   8.673146   4.921412   5.083668  46.347490 -20.524407 -15.558850 0 1 1
6 1   5.621870   0.284226   5.804780  18.713717 -29.433133  -2.280756 0 1 0
7 2   8.218406   9.578487   3.531359   0.920145  11.051980 -15.165860 0 0 0
8 4  10.620901   7.298991   0.861913  -3.566980   8.069210  10.308760 0 0 0
9 2   7.397058   2.601287   1.287837  18.389473 -24.815220  16.242160 0 1 0
10 1   4.181218   0.171966   2.227171 -12.571180  26.077230  -9.279725 0 1 0
11 2   2.197137   8.618498   3.747226 -15.966727  -2.124960 -11.104600 0 0 0
12 3   6.874183   9.137946   9.534944  -0.810540   5.888211 -10.431810 0 1 -1
13 1   7.822560   4.906418  10.231544   4.983840   8.292820   1.128130 0 1 -1
14 1   1.787119   7.677831   7.202131  14.841620  -8.197240   6.889930 0 0 0
15 2   1.875011   9.757500  10.096378 -29.696764  52.959193   4.705979 0 0 0
16 4  10.871379   0.897095   9.018649  21.934557 -45.734770  -1.914230 -1 1 0
17 5   0.122231   4.897732   9.779378 -17.837840  -1.855098  -1.786240 0 0 0
18 5   8.994214   1.735020   5.928194  -5.114671  -6.674750   5.436500 0 0 0
ITEM: TIMESTEP
11000
ITEM: NUMBER OF ATOMS
18
ITEM: BOX BOUNDS pp pp pp
0.0000000000000000e+00 1.1562084830000000e+01
0.0000000000000000e+00 1.1562084830000000e+01
0.0000000000000000e+00 1.1562084830000000e+01
ITEM: ATOMS id type x y z fx fy fz ix iy iz
1 2   5.199099   5.519520   3.877913  -9.274925 -16.499080 -10.112501 0 1 1
2 1   3.433291   5.361580  11.242228  -9.467120 -14.453620   7.477081 0 1 0
3 2   3.553744   2.470696   8.091021 -34.356907  36.118229  29.645180 0 1 0
4 3   0.572745   2.767230   4.208321 -10.841249   6.015598 -10.681151 1 1 1
5 1   8.727771   4.788276   5.374004  28.444260 -10.879856   2.037090 0 1 1
6 1   5.648734   0.046840   5.939352  34.025830  -8.013510 -12.511070 0 1 0
7 2   8.167256   9.682282   3.516527  -1.346090 -15.481429  -2.260650 0 0 0
8 4  10.661401   7.629781   0.818262   0.246050  12.899950   1.697610 0 0 0
9 2   7.707831   2.298037   1.099532  -3.933974  -4.363663  -9.182690 0 1 0
10 1   4.340703   0.165316   2.079235  18.648284  19.662620 -13.579160 0 1 0
11 2   1.886543   8.932425   3.570336 -15.762773 -15.342610  43.603267 0 0 0
12 3   6.812802   8.830842   9.810906 -33.816590  16.776591 -20.997670 0 1 -1
13 1   7.747175   4.825696  10.281467  25.402610 -12.087920  18.308593 0 1 -1
14 1   1.373580   7.988185   7.158802   5.926888   5.293849 -29.277970 0 0 0
15 2   1.905180   9.627102  10.166700  12.315740   1.138964   4.161110 0 0 0
16 4  10.845354   0.639906   9.202573  -1.752289  -6.780673  12.126330 -1 1 0
17 5  11.188864   5.410852   9.514219   5.241700  -0.476953  -1.882690 -1 0 0
18 5   9.383848   0.827885   6.382170  -9.699280   6.474160  -8.570560 0 0 0
ITEM: TIMESTEP
12000
ITEM: NUMBER OF ATOMS
18
ITEM: BOX BOUNDS pp pp pp
0.0000000000000000e+00 1.1562084830000000e+01
0.0000000000000000e+00 1.1562084830000000e+01
0.0000000000000000e+00 1.1562084830000000e+01
ITEM: ATOMS id type x y z fx fy fz ix iy iz
1 2   5.094062   5.707108   3.944292 -15.997876  11.553950   8.496208 0 1 1
2 1   3.287226   5.388954   0.050620 -34.853000   5.085570  -3.189626 0 1 1
3 2   3.559421   2.422064   8.806892  16.669790 -21.324139   7.075060 0 1 0
4 3   0.391743   2.935239   4.188300  -7.979890 -12.077050  12.794020 1 1 1
5 1   8.422926   4.545518   5.177286  30.722430   9.120270 -17.061780 0 1 1
6 1   5.463977   0.080934   6.154470  13.198150  15.266090 -20.168420 0 1 0
7 2   8.107881   9.387723   3.524667  -4.566460 -15.243250   7.636007 0 0 0
8 4  10.147882   6.981976   0.710029   2.557850   6.159552   0.291840 0 0 0
9 2   7.956247   2.599885   1.088055 -22.798863  -7.991110  14.517073 0 1 0
10 1   4.742871   0.505329   2.358911  12.610470 -20.734220  -9.241520 0 1 0
11 2   1.965041   9.089224   3.747938   2.760230   1.958900  33.911385 0 0 0
12 3   6.833674   9.347289   9.293970   1.300211  -9.078095   9.492028 0 1 -1
13 1   7.751396   4.827805  10.004944   3.701730  26.681160 -22.381811 0 1 -1
14 1   1.388110   7.581850   7.216855  11.974990  -5.308070 -32.513235 0 0 0
15 2   2.074001   9.478544  10.198781 -10.778640 -13.628935  21.438088 0 0 0
16 4  11.463333   0.600571   8.806155  -7.653883  24.262920  -9.763350 -1 1 0
17 5  11.415411   5.144662   9.392012   5.244900   0.761210  -1.535430 -1 0 0
18 5   9.086557   0.902374   5.803977   3.887770   4.535110   0.203000 0 0 0
ITEM: TIMESTEP
13000
ITEM: NUMBER OF ATOMS
18
ITEM: BOX BOUNDS pp pp pp
0.0000000000000000e+00 1.1562084830000000e+01
0.0000000000000000e+00 1.1562084830000000e+01
0.0000000000000000e+00 1.1562084830000000e+01
ITEM: ATOMS id type x y z fx fy fz ix iy iz
1 2   5.469312   5.620339   3.920492   2.982510 -36.186260  14.925917 0 1 1
2 1   3.237879   5.392159  11.542030  33.713081  28.195860  -8.927862 0 1 0
3 2   3.729645   2.524408   8.365960 -62.364050  36.427218 -11.463340 0 1 0
4 3   0.266392   2.859646   4.211620  14.158110 -33.857520   4.529960 1 1 1
5 1   8.674208   4.539429   5.042380 -26.191930  33.589655  -3.126078 0 1 1
6 1   5.465620   0.029487   5.750455  64.819821 -18.356870  27.006580 0 1 0
7 2   7.975271   9.432750   3.331975 -19.124056 -32.832630 -14.563200 0 0 0
8 4  10.825031   7.044571   1.195082   1.880226  12.695919   8.822629 0 0 0
9 2   7.730274   2.331137   0.857074  15.986720  -3.507556  12.674368 0 1 0
10 1   4.113680   0.730414   2.222685 -32.758383  -7.953220 -28.939270 0 1 0
11 2   1.955143   9.024621   3.876880  16.396270 -14.729050 -61.930050 0 0 0
12 3   6.919123   9.335829   9.545034  25.712490 -17.158254  13.515854 0 1 -1
13 1   7.934127   5.124920  10.261722 -20.453400  42.279508  -5.839330 0 1 -1
14 1   1.417513   7.564042   7.560991   6.879990  16.761107  67.093870 0 0 0
15 2   1.955419   9.594666  10.166407 -21.665622 -27.853282  -7.882820 0 0 0
16 4  10.963686   0.437052   8.795982   4.703341  26.062890 -14.769247 -1 1 0
17 5   0.038123   4.946131   9.517755  -2.673990  -3.098100   5.193400 0 0 0
18 5   8.973824   0.842588   5.948043  -2.001030  -0.479050   3.679177 0 0 0
ITEM: TIMESTEP
14000
ITEM: NUMBER OF ATOMS
18
ITEM: BOX BOUNDS pp pp pp
0.0000000000000000e+00 1.1562084830000000e+01
0.0000000000000000e+00 1.1562084830000000e+01
0.0000000000000000e+00 1.1562084830000000e+01
ITEM: ATOMS id type x y z fx fy fz ix iy iz
1 2   5.405798   5.756955   3.931979  38.325034 -25.290243 -57.450327 0 1 1
2 1   3.379027   5.760004  11.503269  -0.964020 -12.659837   3.035680 0 1 0
3 2   3.705326   2.740364   8.418498 -15.426413  23.319440  41.286921 0 1 0
4 3   0.321147   2.828690   3.502325  -9.196197   3.152625 -12.254140 1 1 1
5 1   8.513783   4.455409   5.001298 -13.636199   1.717400  36.993230 0 1 1
6 1   5.357406  11.456594   6.057360  16.458140   1.063170  -6.673721 0 0 0
7 2   7.990418   9.415138   3.819891  -6.665770 -32.672507  -4.686374 0 0 0
8 4  10.419587   7.369915   1.142263  12.481357  28.056230  -2.171228 0 0 0
9 2   7.452787   2.418603   1.212593 -15.490160 -11.463380  -9.515500 0 1 0
10 1   4.175359   0.476037   2.090029  10.220870   4.822300  16.057370 0 1 0
11 2   2.215743   8.689958   3.431650 -12.801790   7.814910   3.760116 0 0 0
12 3   7.306272   9.219541  10.145159  -2.867835   0.486441  13.192422 0 1 -1
13 1   7.954320   4.981970  10.259982  -5.833700   6.774660 -17.007413 0 1 -1
14 1   1.528096   7.808430   7.400938  24.178460   4.750292  14.740600 0 0 0
15 2   2.320666   9.665525   9.671680 -28.927870  -1.312942 -17.648245 0 0 0
16 4  10.514969   0.091482   8.832428  15.590220  -0.808758  -5.518761 -1 1 0
17 5   0.013762   4.961945  10.128407   0.495550   6.080360   3.799300 0 0 0
18 5   8.964186   1.001649   6.142830  -5.939350  -3.830300   0.060050 0 0 0
ITEM: TIMESTEP
15000
ITEM: NUMBER OF ATOMS
18
ITEM: BOX BOUNDS pp pp pp
0.0000000000000000e+00 1.1562084830000000e+01
0.0000000000000000e+00 1.1562084830000000e+01
0.0000000000000000e+00 1.1562084830000000e+01
ITEM: ATOMS id type x y z fx fy fz ix iy iz
1 2   5.245676   5.657536   3.995989  16.651944 -39.279430  12.256549 0 1 1
2 1   3.975969   5.493951  11.414660  35.407840  32.858910   0.659752 0 1 0
3 2   3.451418   2.737773   8.453760 -37.118957 -11.049520 -40.415058 0 1 0
4 3   0.168875   2.734178   3.143757  20.215295 -15.814867   8.979420 1 1 1
5 1   8.333558   4.384342   5.124307 -32.386820  24.731207   9.322810 0 1 1
6 1   4.928630  11.554511   6.001084  29.985661  48.603910  46.786840 0 0 0
7 2   7.678430   9.607349   3.965297  -0.630880 -12.221542 -21.075540 0 0 0
8 4  10.425911   7.566236   1.560809   1.674490 -20.431240  -5.132140 0 0 0
9 2   7.642565   2.345183   1.110176   1.318190   4.139594 -26.205250 0 1 0
10 1   4.164062   0.498687   1.916554  17.695370  35.388570  44.300330 0 1 0
11 2   2.090329   8.975736   3.473306 -35.284880 -51.971600 -45.008683 0 0 0
12 3   6.942403   9.233844  10.134393 -23.511721  -7.590525 -10.306630 0 1 -1
13 1   8.250047   5.077175  10.313740  33.237370  -2.114120  18.171290 0 1 -1
14 1   1.715946   7.306551   7.178277  12.562458  17.424370  18.403900 0 0 0
15 2   2.335393   9.261734   9.635399 -25.872703   3.223070 -28.497700 0 0 0
16 4  11.261209   0.660003   8.765775   8.736325 -14.553860  25.420740 -1 1 0
17 5   0.407322   5.345182  10.628551 -15.730880  -0.987230  -4.348200 0 0 0
18 5   8.728134   0.721358   6.661932  -6.948009   9.644339  -3.312640 0 0 0
ITEM: TIMESTEP
16000
ITEM: NUMBER OF ATOMS
18
ITEM: BOX BOUNDS pp pp pp
0.0000000000000000e+00 1.1562084830000000e+01
0.0000000000000000e+00 1.1562084830000000e+01
0.0000000000000000e+00 1.1562084830000000e+01
ITEM: ATOMS id type x y z fx fy fz ix iy iz
1 2   5.369490   5.627303   4.264998  44.118686  -9.199680  21.830605 0 1 1
2 1   3.863901   5.382270   0.124840  -1.167630  14.951267 -27.460060 0 1 1
3 2   3.400349   2.942760   8.479549 -45.101780   5.616910  -3.874005 0 1 0
4 3   0.234563   2.850998   2.847125 -16.431900 -10.484017  14.620830 1 1 1
5 1   8.437949   4.531051   5.214055 -15.557230  13.176390 -12.705810 0 1 1
6 1   4.903569   0.305301   6.177234  21.847100 -12.612970   7.530420 0 1 0
7 2   7.693057   9.813003   4.398578   7.125760  22.318802   7.341934 0 0 0
8 4  10.034060   8.167422   1.495128  10.011030 -15.231160 -11.733000 0 0 0
9 2   7.650970   2.103740   1.001735 -14.169870  17.790265 -12.592400 0 1 0
10 1   4.051200   0.447650   1.992805  40.695070 -21.828159   0.921360 0 1 0
11 2   1.972977   8.563000   3.233385  -0.396895  16.952870 -18.500690 0 0 0
12 3   7.598422   8.980095   9.946972  20.641719   3.848560  23.915927 0 1 -1
13 1   8.174550   4.980049  10.552551 -35.195500  -9.485840 -13.709710 0 1 -1
14 1   1.590638   7.261197   6.954696   0.546550 -34.656200  41.438580 0 0 0
15 2   2.664003   9.234771   9.204376 -46.518078  30.559724 -32.976950 0 0 0
16 4  10.918345   0.005226   8.773763  42.886990  -6.425890  26.182640 -1 1 0
17 5   0.385365   6.059824  10.701874   2.688300  -1.371500  -0.372496 0 0 0
18 5   8.409281   1.178549   6.881610 -16.021870  -3.919150  -9.857090 0 0 0
ITEM: TIMESTEP
17000
ITEM: NUMBER OF ATOMS
18
ITEM: BOX BOUNDS pp pp pp
0.0000000000000000e+00 1.1562084830000000e+01
0.0000000000000000e+00 1.1562084830000000e+01
0.0000000000000000e+00 1.1562084830000000e+01
ITEM: ATOMS id type x y z fx fy fz ix iy iz
1 2   5.457635   5.325418   4.063324   0.557190  13.164520  -5.322959 0 1 1
2 1   3.940569   5.332446  11.444511  11.811550  14.262857  16.013120 0 1 0
3 2   3.132659   2.775702   8.509266 -27.620940  -4.352639  -6.439940 0 1 0
4 3   0.131041   2.735429   2.717972   1.868610   5.763561   4.182640 1 1 1
5 1   8.597616   4.209904   5.486938   6.022333 -23.244403  -3.411606 0 1 1
6 1   4.594369   0.347673   6.241432  22.066580  -7.489530  -2.365290 0 1 0
7 2   7.422489  10.038161   4.437726 -19.075255  44.184839  12.109920 0 0 0
8 4  10.262551   8.292362   1.848265   6.440970 -30.344760  -1.218590 0 0 0
9 2   7.507982   2.215249   0.895717  12.443860 -31.409813  10.296360 0 1 0
10 1   3.856384   0.471799   1.750295  -6.708788   3.828370 -30.350840 0 1 0
11 2   2.313604   8.612190   3.330305 -11.948570   4.579270   9.320136 0 0 0
12 3   7.687235   9.201981   9.768641  -5.111410  -9.774793  -9.504860 0 1 -1
13 1   8.051724   4.985529  10.388562  -1.259008  29.097470   5.989840 0 1 -1
14 1   1.724794   7.334545   7.155389  16.860882  -3.519720  33.366940 0 0 0
15 2   2.689434   9.031320   9.325218   4.068880 -32.468220 -18.591136 0 0 0
16 4  11.407909   0.148171   8.553314  -7.202860  33.951622   1.482760 -1 1 0
17 5   0.266005   6.191061  11.007518  -4.921000  -3.037150  -8.512960 0 0 0
18 5   7.752898   1.350572   7.789731   1.706510  -3.191880  -7.043430 0 0 0
ITEM: TIMESTEP
18000
ITEM: NUMBER OF ATOMS
18
ITEM: BOX BOUNDS pp pp pp
0.0000000000000000e+00 1.1562084830000000e+01
0.0000000000000000e+00 1.1562084830000000e+01
0.0000000000000000e+00 1.1562084830000000e+01
ITEM: ATOMS id type x y z fx fy fz ix iy iz
1 2   5.645116   5.569199   4.261202  34.378871 -16.796880  -6.149910 0 1 1
2 1   3.912900   5.642465   0.199479 -11.931974  20.275560   8.738850 0 1 1
3 2   3.425645   2.812886   8.751011  -2.112230  -6.372693 -30.143540 0 1 0
4 3   0.371912   2.737819   2.901059  -2.049280   2.549926   3.198376 1 1 1