ITEM: TIMESTEP
0
ITEM: NUMBER OF ATOMS
164
ITEM: BOX BOUNDS pp pp pp
0.0000000000000000e+00 1.1562084830000000e+01
0.0000000000000000e+00 1.1562084830000000e+01
0.0000000000000000e+00 1.1562084830000000e+01
ITEM: ATOMS id type mol q xu yu zu mass fx fy fz ix iy iz 
6 4 1 0.053 3.7439 15.995 13.6738 1.00797 11.387 2.68404 8.99903 0 1 1 
38 4 1 0.053 5.23923 15.9873 15.8916 1.00797 12.5848 13.0442 9.71982 0 1 1 
74 3 1 -0.0233 12.8005 14.1215 16.1081 12.0112 17.709 -45.8479 -12.0123 1 1 1 
75 4 1 0.053 13.5223 13.301 16.3916 1.00797 -4.4137 15.5156 1.39633 1 1 1 
76 4 1 0.053 13.4483 14.9925 15.8673 1.00797 -10.363 0.460925 -1.0136 1 1 1 
77 3 1 -0.106 12.1057 13.5032 14.9003 12.0112 -24.2232 17.7469 -30.3763 1 1 1 
78 4 1 0.053 12.8296 13.0104 14.1914 1.00797 -6.33662 8.95714 11.4399 1 1 1 
87 4 2 0.053 3.84495 13.3333 3.55672 1.00797 -0.518908 13.3433 22.6841 0 1 0 
86 3 2 -0.106 4.22984 12.989 2.61819 12.0112 -22.2252 41.5851 -44.2349 0 1 0 
88 4 2 0.053 3.61379 13.5669 1.86424 1.00797 5.30412 -13.1003 9.13316 0 1 0 
22 4 1 0.053 11.8727 15.0788 13.4055 1.00797 15.4185 16.3848 -16.4532 1 1 1 
10 5 1 0.531 2.63576 16.9004 11.7282 12.0112 -18.1305 -21.2838 -33.8503 0 1 1 
82 4 2 0.053 5.76879 13.7341 0.302442 1.00797 -14.7647 2.64779 -19.1926 0 1 0 
4 3 1 -0.106 3.72273 17.0512 14.0351 12.0112 25.9888 -24.091 -37.273 0 1 1 
84 4 2 0.053 5.61573 14.5528 2.49908 1.00797 2.99975 6.92657 7.15409 0 1 0 
83 3 2 -0.106 5.67346 13.4636 2.41219 12.0112 7.89482 -8.2444 -11.3341 0 1 0 
49 6 1 -0.531 4.82786 11.8396 5.51163 15.9994 15.9192 12.4441 15.2965 0 1 0 
36 3 1 -0.106 5.37138 17.1111 15.8941 12.0112 13.0477 -37.8771 -3.79935 0 1 1 
5 4 1 0.053 3.10625 16.9147 14.8939 1.00797 -20.2912 10.5424 23.9712 0 1 1 
89 5 2 0.531 3.8145 11.5779 2.44503 12.0112 51.3039 -38.6607 -71.9036 0 1 0 
71 1 1 -0.5801 11.9046 14.2136 17.2233 14.0067 25.5255 -2.82502 24.6807 1 1 1 
2 4 1 0.053 5.9847 17.1521 13.7135 1.00797 -20.0365 -3.35703 21.9816 0 1 1 
72 2 1 0.2487 11.1489 14.8544 17.1244 1.00797 -0.419459 11.7751 -4.10463 0 1 1 
81 4 2 0.053 6.45318 12.1551 0.817828 1.00797 -10.1279 -4.50554 -5.81929 0 1 0 
85 4 2 0.053 6.23831 13.0906 3.26447 1.00797 14.5938 -2.10478 0.795405 0 1 0 
79 4 1 0.053 11.3501 12.7075 15.1391 1.00797 17.4715 3.29379 13.8251 0 1 1 
80 3 2 -0.106 6.36902 13.2259 1.02902 12.0112 34.2262 -5.17166 32.4002 0 1 0 
115 3 2 -0.106 7.85057 13.7887 0.889311 12.0112 -21.2719 12.1316 -12.0917 0 1 0 
116 4 2 0.053 8.5767 13.1236 1.372 1.00797 -1.9429 -3.52278 1.2641 0 1 0 
117 4 2 0.053 7.88818 14.7566 1.43317 1.00797 3.7576 -7.95084 2.22979 0 1 0 
20 3 1 -0.106 11.2401 14.5018 14.0424 12.0112 -21.8909 -47.9574 6.18455 0 1 1 
21 4 1 0.053 10.648 13.7987 13.3866 1.00797 9.96592 14.7303 0.913415 0 1 1 
23 3 1 -0.106 10.2211 15.4227 14.7381 12.0112 9.54801 8.73603 8.02425 0 1 1 
25 4 1 0.053 9.67869 15.9875 13.9338 1.00797 8.32633 -1.7924 10.6222 0 1 1 
26 3 1 -0.106 9.18062 14.7079 15.6631 12.0112 -2.27526 35.657 -4.85901 0 1 1 
27 4 1 0.053 9.64312 13.9336 16.2323 1.00797 8.5083 -12.1664 14.2169 0 1 1 
28 4 1 0.053 8.40385 14.1948 15.087 1.00797 -4.6853 3.69966 -2.56737 0 1 1 
31 7 1 -0.6503 7.78887 16.8075 15.9688 14.0067 43.6308 -42.0685 7.84267 0 1 1 
32 2 1 0.4395 7.76157 16.5169 15.0092 1.00797 -13.2371 13.8778 -8.88386 0 1 1 
24 4 1 0.053 10.8652 16.1499 15.3284 1.00797 -19.7024 -7.05868 -7.33304 0 1 1 
29 5 1 0.531 8.55072 15.771 16.6417 12.0112 -2.9477 6.85781 -32.9003 0 1 1 
109 6 2 -0.531 6.60282 16.1974 0.0608057 15.9994 0.592633 18.4133 -26.1075 0 1 0 
59 4 1 0.053 8.65092 11.6604 3.26036 1.00797 9.29199 -22.68 -1.33889 0 1 0 
1 3 1 -0.106 5.17499 17.4881 14.4485 12.0112 -17.6628 1.16758 -32.7856 0 1 1 
7 3 1 -0.106 3.05282 17.7927 12.8658 12.0112 6.46198 43.1717 0.431302 0 1 1 
8 4 1 0.053 2.17969 18.4068 13.1338 1.00797 -6.68641 -12.9159 7.77652 0 1 1 
3 4 1 0.053 5.22793 18.5609 14.3456 1.00797 -0.407842 20.5569 1.96938 0 1 1 
9 4 1 0.053 3.66883 18.6272 12.4454 1.00797 7.25455 -15.9985 1.18098 0 1 1 
37 4 1 0.053 4.51145 17.423 16.4826 1.00797 -4.49591 15.3111 9.93878 0 1 1 
90 6 2 -0.531 4.07171 10.9696 1.3743 15.9994 -26.6517 30.1898 58.2523 0 0 0 
91 7 2 -0.6503 3.32735 10.9636 3.5864 14.0067 -2.28803 -25.439 -2.29042 0 0 0 
92 2 2 0.4395 3.83142 11.2821 4.43084 1.00797 -14.6151 2.0015 -7.23601 0 0 0 
93 3 2 0.1048 3.25406 9.50613 3.47033 12.0112 28.2209 42.0425 -6.60629 0 0 0 
94 4 2 0.053 2.73804 9.30754 2.53251 1.00797 -10.8951 -15.0699 -3.54506 0 0 0 
95 4 2 0.053 4.27578 9.11622 3.3645 1.00797 3.50298 -6.01423 -2.65161 0 0 0 
96 3 2 -0.106 2.64601 8.93753 4.7046 12.0112 -26.5503 -6.33773 25.0066 0 0 0 
98 4 2 0.053 3.0317 7.91993 4.75659 1.00797 -8.19499 -13.6518 4.3749 0 0 0 
118 3 2 -0.106 1.05885 9.0638 4.68111 12.0112 33.0257 -38.7982 -23.9667 0 0 0 
120 4 2 0.053 0.89022 9.55545 3.71362 1.00797 -20.2297 5.88577 3.35088 0 0 0 
121 3 2 -0.106 0.299384 7.69747 4.75945 12.0112 32.622 -11.1322 28.919 0 0 0 
123 4 2 0.053 0.85628 6.96565 4.13241 1.00797 -6.60136 -0.574058 5.86536 0 0 0 
119 4 2 0.053 0.762354 9.66507 5.50357 1.00797 -12.8866 25.4744 16.5623 0 0 0 
97 4 2 0.053 3.06353 9.44518 5.61458 1.00797 -4.0287 -5.23516 -9.11039 0 0 0 
33 3 1 0.1048 6.69643 17.563 16.5153 12.0112 -17.1991 26.4998 32.6044 0 1 1 
54 4 1 0.053 6.03032 9.72522 5.37545 1.00797 -3.45375 6.13028 14.9447 0 0 0 
70 9 1 0.423 11.5171 6.49871 0.378482 1.008 -3.00673 -5.13111 6.01817 0 0 0 
35 4 1 0.053 6.83663 18.725 16.344 1.00797 -0.416593 -43.6389 8.02068 0 1 1 
52 3 1 0.1048 6.97686 10.2441 5.17977 12.0112 12.2907 25.8704 -10.9014 0 0 0 
55 3 1 -0.106 7.24058 10.1343 3.66601 12.0112 13.4698 -4.55223 -10.5761 0 0 0 
56 4 1 0.053 7.0259 9.12365 3.34318 1.00797 2.10306 -22.228 8.08382 0 0 0 
57 4 1 0.053 6.55164 10.6428 3.01724 1.00797 -15.2026 22.8318 -2.54869 0 0 0 
58 3 1 -0.106 8.67818 10.5169 3.29084 12.0112 -16.9059 34.9215 26.8616 0 0 0 
60 4 1 0.053 9.32216 10.2558 4.14804 1.00797 4.98863 0.879176 -0.784013 0 0 0 
61 3 1 -0.106 9.32944 9.97827 2.04883 12.0112 12.5191 -9.37328 -0.590087 0 0 0 
62 4 1 0.053 10.298 10.5316 2.02834 1.00797 3.81383 -16.9977 -4.24514 0 0 0 
63 4 1 0.053 8.82994 10.3168 1.1676 1.00797 -15.9966 9.69015 -21.0235 0 0 0 
64 3 1 -0.106 9.43957 8.42668 1.96258 12.0112 10.3375 -16.9871 14.731 0 0 0 
65 4 1 0.053 9.59633 7.96635 2.97057 1.00797 -3.94525 6.86454 -15.7873 0 0 0 
66 4 1 0.053 8.53712 7.92237 1.59136 1.00797 -11.6815 11.1346 2.8896 0 0 0 
67 5 1 0.702 10.4737 7.92647 0.972114 12.0112 4.03166 -28.2428 27.5654 0 0 0 
69 8 1 -0.594 10.8413 6.61421 1.05665 15.9994 -11.5738 5.74656 7.07913 0 0 0 
122 4 2 0.053 -0.715194 7.73199 4.38238 1.00797 -6.22147 5.45768 -1.62085 -1 0 0 
53 4 1 0.053 7.78528 9.66891 5.62178 1.00797 2.63152 -11.3985 11.8831 0 0 0 
68 6 1 -0.531 11.0167 8.56018 0.154525 15.9994 20.8656 37.8382 -43.276 0 0 0 
12 7 1 -0.6503 3.57859 16.1242 11.0032 14.0067 18.1476 17.2417 46.8538 0 1 0 
13 2 1 0.4395 4.53778 16.1147 11.3585 1.00797 -3.16998 -6.8903 -13.4505 0 1 0 
14 3 1 0.1048 3.13029 15.3466 9.87316 12.0112 -13.2599 -2.11153 -9.38521 0 1 0 
15 4 1 0.053 3.06119 16.1124 9.07582 1.00797 -2.01065 -14.8017 -12.5774 0 1 0 
16 4 1 0.053 2.08951 14.9878 10.0926 1.00797 11.9296 5.44904 -7.43204 0 1 0 
43 4 1 0.053 3.92328 14.1601 5.96599 1.00797 -6.70316 -5.44622 -6.03012 0 1 0 
73 2 1 0.2487 12.4871 14.4835 18.0174 1.00797 -18.415 2.29718 0.500258 1 1 1 
144 4 2 0.053 1.58515 12.9213 10.5341 1.00797 36.9422 21.2652 6.04596 0 1 0 
146 5 2 0.702 0.387999 12.6849 8.96557 12.0112 -0.711544 5.90424 5.36846 0 1 0 
161 11 3 0.3991 0.0425414 5.04094 9.68904 1.00797 -17.1102 -5.26602 -6.23616 0 0 0 
17 3 1 -0.106 3.99478 14.123 9.50812 12.0112 -24.454 -0.744976 -7.18831 0 1 0 
18 4 1 0.053 4.9721 14.3181 9.83523 1.00797 51.0472 11.7746 -10.7782 0 1 0 
19 4 1 0.053 3.80169 13.3196 10.2051 1.00797 -16.6884 -9.49871 16.1446 0 1 0 
39 3 1 -0.106 3.80688 13.4298 8.12687 12.0112 4.04438 27.3863 11.5092 0 1 0 
40 4 1 0.053 2.70934 13.3365 8.10886 1.00797 2.97901 0.357029 -20.8036 0 1 0 
41 4 1 0.053 4.18343 12.4047 8.27148 1.00797 4.33337 -1.62548 -9.99161 0 1 0 
42 3 1 -0.106 4.49639 14.1469 6.89114 12.0112 17.6649 10.2482 33.9851 0 1 0 
44 4 1 0.053 4.70736 15.2123 7.10284 1.00797 -13.5478 1.80183 7.33339 0 1 0 
143 3 2 -0.106 0.883019 12.1761 10.299 12.0112 -10.5734 -5.80113 19.0304 0 1 0 
148 8 2 -0.594 0.156987 11.7058 8.09085 15.9994 3.06207 -9.37906 7.14982 0 1 0 
11 6 1 -0.531 1.481 16.8461 11.3608 15.9994 -3.71201 14.8576 10.6477 0 1 0 
145 4 2 0.053 0.19453 12.3955 11.1192 1.00797 -21.5708 -2.63185 -6.1204 0 1 0 
147 6 2 -0.531 0.247479 13.8213 8.60308 15.9994 -3.64691 -2.13265 4.30696 0 1 0 
48 5 1 0.531 5.8538 12.3114 5.96418 12.0112 22.0656 -29.5886 -2.75976 0 1 0 
30 6 1 -0.531 8.75146 15.6965 17.8181 15.9994 -8.91733 6.02608 4.14754 0 1 1 
47 4 1 0.053 6.54962 14.2674 6.02709 1.00797 -4.76697 0.291441 11.6862 0 1 0 
50 7 1 -0.6503 7.0683 11.6127 5.82326 14.0067 -50.9467 -46.3714 -32.3517 0 1 0 
149 9 2 0.423 -0.028378 12.2091 7.32173 1.008 -9.61566 -0.205771 -28.5692 -1 1 0 
45 3 1 -0.106 5.9444 13.6125 6.69045 12.0112 -30.2155 2.20777 -26.6034 0 1 0 
112 3 2 0.1048 8.26599 14.0758 -0.61213 12.0112 -9.26179 -26.0999 -29.4073 0 1 -1 
113 4 2 0.053 9.2622 13.6134 -0.858054 1.00797 -12.0411 1.93347 10.8812 0 1 -1 
110 7 2 -0.6503 8.41294 15.4634 -1.05321 14.0067 24.004 -20.9034 -8.95341 0 1 -1 
114 4 2 0.053 7.55433 13.5317 -1.37668 1.00797 19.3227 15.5965 30.5783 0 1 -1 
108 5 2 0.531 7.50425 16.433 -0.735151 12.0112 -21.7509 -20.0293 32.1916 0 1 -1 
111 2 2 0.4395 9.24685 15.7039 -1.62409 1.00797 -13.2401 -0.768339 7.4902 0 1 -1 
162 10 4 -0.7982 9.36644 1.56357 7.03311 15.9994 -3.74781 -19.3494 5.96886 0 0 0 
163 11 4 0.3991 9.88401 1.83329 7.80804 1.00797 4.11405 0.83356 4.93933 0 0 0 
164 11 4 0.3991 9.01524 2.4301 6.78939 1.00797 -6.09403 17.829 -6.6872 0 0 0 
159 10 3 -0.7982 -0.763645 4.72349 9.18835 15.9994 2.68507 32.352 40.6903 -1 0 0 
46 4 1 0.053 6.40688 13.4606 7.65961 1.00797 10.7192 2.42305 8.72519 0 1 0 
160 11 3 0.3991 -0.327921 4.23783 8.50565 1.00797 16.6116 -24.1651 -30.1796 -1 0 0 
51 2 1 0.4395 7.94402 11.8983 6.17774 1.00797 19.9078 14.096 13.9487 0 1 0 
104 4 2 0.053 7.61808 16.9094 -3.29508 1.00797 -7.30003 9.97068 0.889076 0 1 -1 
142 4 2 0.053 1.47024 10.4361 11.4503 1.00797 -1.86733 8.65748 8.65627 0 0 0 
128 6 2 -0.531 2.21098 6.1422 6.68072 15.9994 10.0323 -3.39586 -7.18361 0 0 0 
138 4 2 0.053 3.63249 10.9296 10.1299 1.00797 -16.615 4.46745 2.37197 0 0 0 
127 5 2 0.531 1.47966 7.05129 6.97865 12.0112 14.4202 -20.0625 11.0348 0 0 0 
129 7 2 -0.6503 1.71257 7.82611 8.09699 14.0067 -39.6432 61.8879 17.445 0 0 0 
130 2 2 0.4395 1.07144 8.62744 8.29653 1.00797 17.3288 -28.0658 -9.04516 0 0 0 
131 3 2 0.1048 2.94363 7.88954 8.84499 12.0112 -3.40998 -1.42897 -4.01464 0 0 0 
132 4 2 0.053 3.01556 6.94892 9.41237 1.00797 15.1732 -5.91482 -11.2672 0 0 0 
133 4 2 0.053 3.77353 8.10344 8.12188 1.00797 -1.09388 -10.6233 16.0536 0 0 0 
134 3 2 -0.106 2.89992 8.93747 9.96561 12.0112 19.3677 -15.93 28.218 0 0 0 
135 4 2 0.053 2.1424 8.67208 10.7748 1.00797 13.0238 -14.1645 -20.7005 0 0 0 
136 4 2 0.053 3.8711 8.71349 10.5454 1.00797 -18.3964 15.6882 -15.2349 0 0 0 
137 3 2 -0.106 2.71455 10.4448 9.71061 12.0112 17.1701 -16.7533 28.2598 0 0 0 
139 4 2 0.053 2.65197 10.7828 8.70687 1.00797 1.43674 -1.42616 -33.574 0 0 0 
140 3 2 -0.106 1.39881 10.7598 10.4032 12.0112 -6.1698 8.36417 -3.76887 0 0 0 
141 4 2 0.053 0.600572 10.1362 9.96112 1.00797 2.00274 -5.46972 -0.351553 0 0 0 
124 3 2 -0.106 0.179641 7.24192 6.27787 12.0112 -22.5312 18.9168 -29.6917 0 0 0 
34 4 1 0.053 6.65895 17.365 17.6457 1.00797 1.44717 7.74418 -28.2755 0 1 1 
151 2 2 0.2487 6.35859 22.8431 -1.37001 1.00797 -10.5733 -8.69928 -7.11884 0 1 -1 
105 3 2 -0.106 7.79305 17.7497 -1.32001 12.0112 -23.9702 12.0713 -6.09699 0 1 -1 
107 4 2 0.053 8.80787 17.996 -1.06752 1.00797 21.3587 7.30129 -5.01134 0 1 -1 
125 4 2 0.053 -0.353929 6.28782 6.47559 1.00797 -2.05392 6.08049 -10.1305 -1 0 0 
106 4 2 0.053 7.16934 18.4386 -0.799137 1.00797 -9.95667 17.7112 19.8397 0 1 -1 
101 4 2 0.053 9.11785 18.4644 -3.6885 1.00797 5.22049 20.0645 -1.09555 0 1 -1 
102 3 2 -0.106 7.37442 17.8799 -2.78596 12.0112 -16.9517 -18.2118 -8.51458 0 1 -1 
99 3 2 -0.106 8.13759 18.9633 -3.53145 12.0112 -4.0881 -7.4425 8.9832 0 1 -1 
100 4 2 0.053 7.68086 19.08 -4.51497 1.00797 -0.0966816 2.00666 -8.62611 0 1 -1 
103 4 2 0.053 6.24305 18.029 -2.88383 1.00797 24.6723 -4.84906 5.91984 0 1 -1 
126 4 2 0.053 -0.417175 8.06871 6.72802 1.00797 2.12207 -10.3545 5.66498 -1 0 0 
150 1 2 -0.5801 7.14518 22.3066 -1.69591 14.0067 48.7436 -4.17948 29.5498 0 1 -1 
152 2 2 0.2487 7.70629 22.1063 -0.823269 1.00797 -19.0202 4.3039 -31.7475 0 1 -1 
153 3 2 -0.0233 6.86995 21.0611 -2.43397 12.0112 -49.5628 4.14657 9.23992 0 1 -1 
154 4 2 0.053 6.13263 20.4446 -1.82418 1.00797 21.4069 -2.17538 -13.0028 0 1 -1 
155 4 2 0.053 6.24933 21.3794 -3.30771 1.00797 9.94749 -8.16766 1.17056 0 1 -1 
156 3 2 -0.106 8.17556 20.3559 -2.87846 12.0112 18.8781 43.4692 4.62433 0 1 -1 
157 4 2 0.053 8.86715 20.4998 -2.01348 1.00797 -1.31247 -21.7767 -3.58912 0 1 -1 
158 4 2 0.053 8.66493 21.07 -3.60643 1.00797 -8.08169 -11.2601 3.41147 0 1 -1 
ITEM: TIMESTEP
1000
ITEM: NUMBER OF ATOMS
164
ITEM: BOX BOUNDS pp pp pp
0.0000000000000000e+00 1.1562084830000000e+01
0.0000000000000000e+00 1.1562084830000000e+01
0.0000000000000000e+00 1.1562084830000000e+01
ITEM: ATOMS id type mol q xu yu zu mass fx fy fz ix iy iz 
6 4 1 0.053 3.49697 16.0395 13.5084 1.00797 10.0665 25.3094 12.6809 0 1 1 
38 4 1 0.053 4.70436 15.7816 15.869 1.00797 14.1799 13.3698 6.74661 0 1 1 
74 3 1 -0.0233 13.0599 13.9272 16.1364 12.0112 1.53039 20.3887 35.7727 1 1 1 
75 4 1 0.053 13.8141 13.2194 16.5135 1.00797 -6.29759 -9.63183 -5.41234 1 1 1 
76 4 1 0.053 13.6581 14.7671 15.7348 1.00797 -2.60861 -1.14072 -6.78143 1 1 1 
77 3 1 -0.106 12.1411 13.3304 15.0766 12.0112 1.04872 -16.6411 -13.3515 1 1 1 
78 4 1 0.053 12.8103 12.7215 14.4139 1.00797 -11.5906 1.03938 5.79077 1 1 1 
87 4 2 0.053 3.91422 13.3602 3.49743 1.00797 17.7167 -7.44433 -4.46503 0 1 0 
86 3 2 -0.106 4.39002 12.9431 2.56969 12.0112 -16.26 29.4329 37.0473 0 1 0 
88 4 2 0.053 3.86296 13.5503 1.82952 1.00797 -1.25725 -2.77312 -14.8742 0 1 0 
22 4 1 0.053 12.1052 14.9123 13.5397 1.00797 14.5266 1.59607 -12.3199 1 1 1 
10 5 1 0.531 2.53841 17.2086 11.4499 12.0112 7.86734 17.7392 -0.818485 0 1 0 
82 4 2 0.053 5.78803 14.3821 0.738374 1.00797 1.02382 -11.1973 -6.49017 0 1 0 
4 3 1 -0.106 3.65273 17.1492 13.8095 12.0112 10.1101 -51.1504 -43.519 0 1 1 
84 4 2 0.053 6.03236 14.2322 2.94825 1.00797 3.89595 -12.4734 1.83182 0 1 0 
83 3 2 -0.106 5.90962 13.2246 2.48473 12.0112 20.1686 13.7965 -14.938 0 1 0 
49 6 1 -0.531 4.74534 11.7035 5.76625 15.9994 18.1852 -4.47954 4.46195 0 1 0 
36 3 1 -0.106 5.13248 16.8331 15.8741 12.0112 -14.426 -19.2264 3.51046 0 1 1 
5 4 1 0.053 2.88769 17.2488 14.5831 1.00797 -5.90319 14.4459 3.64628 0 1 1 
89 5 2 0.531 3.93814 11.5314 2.41127 12.0112 21.4054 -42.5204 -51.9568 0 0 0 
71 1 1 -0.5801 12.3 14.3913 17.342 14.0067 -9.08374 10.7966 -30.3149 1 1 1 
2 4 1 0.053 5.87709 16.7623 13.7584 1.00797 -22.2618 -1.01985 9.63326 0 1 1 
72 2 1 0.2487 11.5671 14.9887 16.9275 1.00797 1.91676 -11.9391 10.328 0 1 1 
81 4 2 0.053 5.90765 12.6285 0.384476 1.00797 1.21521 -0.847767 -5.49066 0 1 0 
85 4 2 0.053 6.56702 12.5121 3.03842 1.00797 -11.5642 4.11328 -4.29147 0 1 0 
79 4 1 0.053 11.3906 12.6163 15.5579 1.00797 17.4664 12.7353 -10.938 0 1 1 
80 3 2 -0.106 6.34597 13.4412 0.980718 12.0112 -8.99381 15.7625 21.6876 0 1 0 
115 3 2 -0.106 7.81146 13.709 0.511258 12.0112 -30.65 -2.04719 -8.42352 0 1 0 
116 4 2 0.053 8.35429 12.766 0.557154 1.00797 11.0971 -2.79781 8.49224 0 1 0 
117 4 2 0.053 8.27529 14.5053 1.11999 1.00797 4.0507 -7.62758 1.99223 0 1 0 
20 3 1 -0.106 11.408 14.3312 14.1265 12.0112 -36.4767 -17.6735 12.6973 0 1 1 
21 4 1 0.053 10.7266 13.7374 13.4167 1.00797 21.9898 10.8587 12.0683 0 1 1 
23 3 1 -0.106 10.4728 15.3584 14.8202 12.0112 21.7081 -12.6257 -2.07989 0 1 1 
25 4 1 0.053 9.97877 15.884 13.9815 1.00797 -3.89753 7.0403 10.4252 0 1 1 
26 3 1 -0.106 9.51911 14.6586 15.7924 12.0112 -6.44959 6.46168 -8.58317 0 1 1 
27 4 1 0.053 10.1281 14.2049 16.5914 1.00797 -16.7189 -5.07033 -6.05897 0 1 1 
28 4 1 0.053 8.86028 13.9082 15.325 1.00797 7.49387 -3.27507 -0.950124 0 1 1 
31 7 1 -0.6503 7.3962 16.0535 15.9417 14.0067 15.3229 -13.1606 -29.7757 0 1 1 
32 2 1 0.4395 7.1165 15.7818 15.0164 1.00797 4.9734 -2.92581 0.876321 0 1 1 
24 4 1 0.053 11.1361 16.0414 15.4136 1.00797 -13.0555 1.63165 -11.1361 0 1 1 
29 5 1 0.531 8.63941 15.6676 16.4829 12.0112 -21.8941 5.19374 0.650185 0 1 1 
109 6 2 -0.531 6.2384 16.5145 -0.489019 15.9994 6.15045 13.6099 1.11811 0 1 -1 
59 4 1 0.053 9.18689 11.2865 3.6976 1.00797 4.47046 -20.4069 10.7373 0 0 0 
1 3 1 -0.106 5.08187 17.2743 14.3913 12.0112 19.5626 13.9076 -0.0146535 0 1 1 
7 3 1 -0.106 3.35639 17.9497 12.488 12.0112 20.8757 11.8911 12.4586 0 1 1 
8 4 1 0.053 2.86784 18.8444 12.8057 1.00797 -21.1782 17.7341 -1.22073 0 1 1 
3 4 1 0.053 5.45204 18.3136 14.3368 1.00797 -8.48415 5.08094 0.887956 0 1 1 
9 4 1 0.053 4.25611 18.3856 11.9273 1.00797 -10.538 -17.1601 18.9633 0 1 1 
37 4 1 0.053 4.40093 17.3752 16.5034 1.00797 -1.7183 6.77598 -7.49903 0 1 1 
90 6 2 -0.531 4.03111 11.0608 1.25772 15.9994 -15.7853 9.03425 70.3367 0 0 0 
91 7 2 -0.6503 3.53571 10.7624 3.56144 14.0067 1.65314 22.3876 -33.4501 0 0 0 
92 2 2 0.4395 3.85267 11.089 4.47274 1.00797 -1.22867 -0.614605 1.36388 0 0 0 
93 3 2 0.1048 3.30256 9.35604 3.34961 12.0112 20.1712 -5.14027 12.2355 0 0 0 
94 4 2 0.053 2.75872 9.26855 2.42062 1.00797 -2.45341 -5.40747 -17.963 0 0 0 
95 4 2 0.053 4.28251 8.83706 3.25489 1.00797 -5.75474 1.15265 -5.04384 0 0 0 
96 3 2 -0.106 2.49356 8.64096 4.43016 12.0112 2.51184 -16.8444 9.25836 0 0 0 
98 4 2 0.053 2.8498 7.59544 4.56317 1.00797 2.48208 4.56305 -9.86084 0 0 0 
118 3 2 -0.106 0.997767 8.58303 4.11329 12.0112 15.0272 -11.7774 -34.5371 0 0 0 
120 4 2 0.053 0.849137 8.29579 2.99661 1.00797 7.99142 9.21155 29.9133 0 0 0 
121 3 2 -0.106 0.265033 7.48892 4.88241 12.0112 -8.69477 4.37911 19.3301 0 0 0 
123 4 2 0.053 0.648799 6.48145 4.60677 1.00797 3.43219 6.80155 -2.00364 0 0 0 
119 4 2 0.053 0.637263 9.61367 4.17892 1.00797 -15.2077 1.01499 8.52865 0 0 0 
97 4 2 0.053 2.68866 9.06131 5.42894 1.00797 -2.72779 8.01571 -0.881719 0 0 0 
33 3 1 0.1048 6.46071 16.8949 16.6415 12.0112 7.38567 -14.9784 -30.1065 0 1 1 
54 4 1 0.053 6.44169 9.67051 5.9559 1.00797 1.67982 4.08447 -6.62833 0 0 0 
70 9 1 0.423 11.7673 6.51941 0.562884 1.008 -6.58639 -0.228597 1.33257 1 0 0 
35 4 1 0.053 6.91447 17.8681 16.7454 1.00797 -4.56954 22.2182 1.09929 0 1 1 
52 3 1 0.1048 7.31073 10.2461 5.57569 12.0112 12.5186 26.3651 29.3883 0 0 0 
55 3 1 -0.106 7.74036 9.76615 4.20128 12.0112 -48.9625 13.3217 -15.4752 0 0 0 
56 4 1 0.053 7.55791 8.66725 4.29059 1.00797 7.12553 7.66595 -15.1385 0 0 0 
57 4 1 0.053 7.04453 10.2497 3.46435 1.00797 1.13805 -18.9473 5.3045 0 0 0 
58 3 1 -0.106 9.12202 10.1541 3.76201 12.0112 9.46859 3.65003 -7.93837 0 0 0 
60 4 1 0.053 9.78714 9.7138 4.50906 1.00797 13.4014 10.5861 3.53493 0 0 0 
61 3 1 -0.106 9.51561 9.61873 2.37045 12.0112 49.3414 33.0461 11.1231 0 0 0 
62 4 1 0.053 10.6101 9.93876 2.16858 1.00797 -27.5402 -5.17579 6.82442 0 0 0 
63 4 1 0.053 8.92893 10.1853 1.65482 1.00797 -7.37481 1.18687 -15.3325 0 0 0 
64 3 1 -0.106 9.40869 8.13098 2.15242 12.0112 -31.5405 -25.4721 -7.91037 0 0 0 
65 4 1 0.053 9.42342 7.56558 3.08841 1.00797 5.24929 -2.79781 0.943126 0 0 0 
66 4 1 0.053 8.34485 8.01796 1.79124 1.00797 17.9274 -8.4879 -3.34103 0 0 0 
67 5 1 0.702 10.315 7.64232 1.01754 12.0112 0.811607 20.269 -40.2622 0 0 0 
69 8 1 -0.594 11.1879 6.65112 1.32435 15.9994 -9.95389 7.79556 9.58462 0 0 0 
122 4 2 0.053 -0.758043 7.4968 4.51171 1.00797 -9.37326 -2.81901 2.57441 -1 0 0 
53 4 1 0.053 8.16773 9.95258 6.21823 1.00797 -8.21183 -0.171595 4.28626 0 0 0 
68 6 1 -0.531 10.3105 8.11641 -0.108435 15.9994 6.29605 -11.3664 36.6305 0 0 -1 
12 7 1 -0.6503 3.3812 16.3699 10.746 14.0067 10.4311 -1.17576 13.1261 0 1 0 
13 2 1 0.4395 4.38603 16.4629 10.9769 1.00797 -11.0145 -10.5682 -8.53936 0 1 0 
14 3 1 0.1048 2.99446 15.6322 9.56899 12.0112 2.24028 14.1502 23.808 0 1 0 
15 4 1 0.053 3.04095 16.3582 8.73647 1.00797 -7.7343 -13.9888 -7.32154 0 1 0 
16 4 1 0.053 1.99513 15.1821 9.7568 1.00797 0.0835538 14.2949 -8.80596 0 1 0 
43 4 1 0.053 3.83028 14.2051 5.90981 1.00797 1.75469 -4.10217 15.6176 0 1 0 
73 2 1 0.2487 12.7946 15.119 17.8316 1.00797 15.6027 -2.05177 5.7849 1 1 1 
144 4 2 0.053 1.10318 12.4439 10.9594 1.00797 -8.77016 -15.7436 -2.34043 0 1 0 
146 5 2 0.702 0.259528 12.5571 9.05512 12.0112 -10.8464 -13.8275 -18.0942 0 1 0 
161 11 3 0.3991 0.0658117 4.76896 10.3275 1.00797 -12.7154 -2.8835 -10.741 0 0 0 
17 3 1 -0.106 3.9359 14.4602 9.43152 12.0112 8.35714 -7.18036 34.2026 0 1 0 
18 4 1 0.053 4.99737 14.8043 9.40544 1.00797 -9.95294 -6.39344 5.48046 0 1 0 
19 4 1 0.053 3.75151 13.7733 10.3678 1.00797 13.1207 21.0976 -32.1307 0 1 0 
39 3 1 -0.106 3.58436 13.7611 8.15933 12.0112 -2.22417 6.27276 -39.5493 0 1 0 
40 4 1 0.053 2.49903 13.8673 8.07459 1.00797 -6.35175 0.954066 -13.2993 0 1 0 
41 4 1 0.053 3.6857 12.6799 8.26175 1.00797 12.6012 -7.67353 -7.64736 0 1 0 
42 3 1 -0.106 4.36526 14.3455 6.88295 12.0112 -16.5608 -7.87929 0.464645 0 1 0 
44 4 1 0.053 4.5018 15.4562 6.90769 1.00797 -4.11663 -10.3175 12.6851 0 1 0 
143 3 2 -0.106 0.478422 11.7411 10.3399 12.0112 -3.68354 -20.278 23.1842 0 1 0 
148 8 2 -0.594 0.710839 11.8464 7.97949 15.9994 -4.08907 1.42781 23.1525 0 1 0 
11 6 1 -0.531 1.38737 17.4385 11.1597 15.9994 5.85849 -14.8949 3.30084 0 1 0 
145 4 2 0.053 -0.514389 11.6028 10.862 1.00797 11.1041 18.9716 -12.2631 -1 1 0 
147 6 2 -0.531 -0.270164 13.6298 8.8825 15.9994 14.7047 -21.9438 5.29374 -1 1 0 
48 5 1 0.531 5.77043 12.2517 6.09162 12.0112 30.6645 12.3041 -2.46478 0 1 0 
30 6 1 -0.531 8.94125 16.0682 17.5654 15.9994 12.1907 5.0111 23.9744 0 1 1 
47 4 1 0.053 6.50964 14.2955 6.41977 1.00797 14.6342 10.2102 -10.9753 0 1 0 
50 7 1 -0.6503 7.10599 11.7004 5.86174 14.0067 -28.2882 -3.71906 0.111374 0 1 0 
149 9 2 0.423 0.579826 12.4036 7.23861 1.008 -0.910487 11.8007 -20.6127 0 1 0 
45 3 1 -0.106 5.73397 13.6589 6.78976 12.0112 -11.6791 -35.7146 16.0956 0 1 0 
112 3 2 0.1048 7.73603 14.1436 -0.989427 12.0112 7.78032 26.3316 5.12378 0 1 -1 
113 4 2 0.053 8.37139 13.5138 -1.60634 1.00797 13.3554 -5.20339 -2.21931 0 1 -1 
110 7 2 -0.6503 8.11966 15.5585 -1.29481 14.0067 -22.1911 -29.9242 9.56984 0 1 -1 
114 4 2 0.053 6.75008 13.9015 -1.41217 1.00797 -3.73304 8.0016 1.2527 0 1 -1 
108 5 2 0.531 7.35744 16.6636 -0.939362 12.0112 -13.5826 -30.4498 -4.04093 0 1 -1 
111 2 2 0.4395 9.07338 15.7369 -1.5528 1.00797 13.8143 1.30322 -3.9026 0 1 -1 
162 10 4 -0.7982 9.0292 1.8316 7.27341 15.9994 2.50456 0.993559 -5.48793 0 0 0 
163 11 4 0.3991 9.84534 1.89391 7.8217 1.00797 -7.04143 3.96887 -2.45954 0 0 0 
164 11 4 0.3991 8.93428 2.76251 6.96012 1.00797 2.68063 -2.07283 6.11096 0 0 0 
159 10 3 -0.7982 -0.766843 4.44221 9.88423 15.9994 9.60462 23.2901 19.1361 -1 0 0 
46 4 1 0.053 5.99876 13.4179 7.83892 1.00797 9.45821 3.10009 -3.93975 0 1 0 
160 11 3 0.3991 -0.455215 3.68164 9.37583 1.00797 8.83477 -10.118 -7.07567 -1 0 0 
51 2 1 0.4395 7.90665 12.2273 6.26581 1.00797 -15.0258 -9.42702 -1.55633 0 1 0 
104 4 2 0.053 8.02877 17.5167 -3.40417 1.00797 -1.77716 -22.4676 -7.47421 0 1 -1 
142 4 2 0.053 0.802264 9.78026 11.2279 1.00797 11.3658 0.342094 1.79952 0 0 0 
128 6 2 -0.531 2.1052 6.18637 6.96135 15.9994 -4.47976 -10.0271 -15.2724 0 0 0 
138 4 2 0.053 3.00701 10.7381 10.8577 1.00797 -1.97396 0.711464 -7.28834 0 0 0 
127 5 2 0.531 1.52183 7.22931 7.10087 12.0112 18.4748 -5.24859 16.125 0 0 0 
129 7 2 -0.6503 2.07806 8.21988 7.91496 14.0067 -62.6523 43.974 -21.8457 0 0 0 
130 2 2 0.4395 1.41819 9.03627 8.0223 1.00797 38.3171 -22.3332 4.23428 0 0 0 
131 3 2 0.1048 3.40449 8.26062 8.47038 12.0112 -2.66765 19.5664 4.28839 0 0 0 
132 4 2 0.053 3.73319 7.22184 8.54463 1.00797 10.9856 -3.05347 4.35368 0 0 0 
133 4 2 0.053 4.10578 8.83878 7.79589 1.00797 -9.5915 -10.4536 11.4777 0 0 0 
134 3 2 -0.106 3.27893 8.92337 9.87269 12.0112 16.3481 -61.8111 1.56764 0 0 0 
135 4 2 0.053 2.70831 8.16416 10.5065 1.00797 9.29387 20.1398 -10.1526 0 0 0 
136 4 2 0.053 4.31659 8.90045 10.3387 1.00797 -21.9494 10.6094 -7.1379 0 0 0 
137 3 2 -0.106 2.58092 10.2535 9.95527 12.0112 -5.51633 15.3873 41.7598 0 0 0 
139 4 2 0.053 2.86806 10.9412 9.16636 1.00797 -1.82622 2.09956 -13.8891 0 0 0 
140 3 2 -0.106 1.05522 10.2554 10.2605 12.0112 4.55347 27.7879 -15.1295 0 0 0 
141 4 2 0.053 0.491429 9.65315 9.53084 1.00797 -3.63275 5.21162 -2.85925 0 0 0 
124 3 2 -0.106 0.169189 7.52728 6.44088 12.0112 2.02472 -14.2136 -6.3801 0 0 0 
34 4 1 0.053 6.35775 16.4647 17.604 1.00797 -10.7042 -4.35999 34.1735 0 1 1 
151 2 2 0.2487 5.63746 22.9625 -2.05045 1.00797 30.9504 -12.7073 -0.997493 0 1 -1 
105 3 2 -0.106 7.97312 17.9851 -1.24879 12.0112 -34.332 5.48689 -20.381 0 1 -1 
107 4 2 0.053 9.00138 18.0323 -0.985739 1.00797 27.6128 -9.72998 -1.59646 0 1 -1 
125 4 2 0.053 -0.459185 6.64988 6.72469 1.00797 0.669114 9.86973 2.02465 -1 0 0 
106 4 2 0.053 7.49444 18.6659 -0.558228 1.00797 -9.48669 15.133 0.0808992 0 1 -1 
101 4 2 0.053 9.66371 19.2533 -2.86735 1.00797 -14.1922 -1.716 -7.69359 0 1 -1 
102 3 2 -0.106 7.71082 18.3236 -2.76709 12.0112 -1.31272 22.6483 27.7902 0 1 -1 
99 3 2 -0.106 8.60728 19.4935 -3.19819 12.0112 20.1271 20.1343 13.74 0 1 -1 
100 4 2 0.053 8.69245 19.5805 -4.31087 1.00797 -7.5852 -0.586203 10.6274 0 1 -1 
103 4 2 0.053 6.61551 18.5282 -2.91564 1.00797 14.9249 -4.04101 -3.05001 0 1 -1 
126 4 2 0.053 -0.29062 8.44838 6.85542 1.00797 1.26447 -5.02115 -6.0692 -1 0 0 
150 1 2 -0.5801 6.65148 22.6838 -2.02614 14.0067 -20.097 -6.65463 -9.72169 0 1 -1 
152 2 2 0.2487 6.84091 22.522 -1.06739 1.00797 2.22793 16.8916 25.6489 0 1 -1 
153 3 2 -0.0233 6.83849 21.313 -2.51812 12.0112 -43.1183 -14.7056 -6.71863 0 1 -1 
154 4 2 0.053 6.27218 20.5892 -1.86304 1.00797 11.4149 8.12466 -6.21481 0 1 -1 
155 4 2 0.053 6.27937 21.2103 -3.49218 1.00797 20.3313 1.039 9.54513 0 1 -1 
156 3 2 -0.106 8.30457 20.8835 -2.54485 12.0112 4.25316 18.0832 -21.5406 0 1 -1 
157 4 2 0.053 8.74615 21.0187 -1.54121 1.00797 -5.0801 -12.7404 3.80043 0 1 -1 
158 4 2 0.053 8.86748 21.6723 -3.09671 1.00797 -2.39146 -7.29891 -4.15329 0 1 -1 
ITEM: TIMESTEP
2000
ITEM: NUMBER OF ATOMS
164
ITEM: BOX BOUNDS pp pp pp
0.0000000000000000e+00 1.1562084830000000e+01
0.0000000000000000e+00 1.1562084830000000e+01
0.0000000000000000e+00 1.1562084830000000e+01
ITEM: ATOMS id type mol q xu yu zu mass fx fy fz ix iy iz 
6 4 1 0.053 3.95625 15.9939 13.9628 1.00797 0.830786 12.4355 -11.2879 0 1 1 
38 4 1 0.053 5.68623 16.2461 15.7373 1.00797 3.35466 -3.47631 -1.46079 0 1 1 
74 3 1 -0.0233 12.7172 13.5385 16.1918 12.0112 -34.2135 -12.1487 -24.638 1 1 1 
75 4 1 0.053 13.1063 12.6385 16.6174 1.00797 8.78576 -21.0526 14.2784 1 1 1 
76 4 1 0.053 13.573 14.1221 15.9293 1.00797 20.3796 24.8249 6.29392 1 1 1 
77 3 1 -0.106 12.11 13.1765 14.8174 12.0112 -7.74563 51.3523 -6.71139 1 1 1 
78 4 1 0.053 12.8785 12.7885 14.15 1.00797 7.64124 -18.8982 3.32257 1 1 1 
87 4 2 0.053 4.74907 13.1364 3.87929 1.00797 -0.19541 -3.35893 5.22221 0 1 0 
86 3 2 -0.106 4.89504 12.9626 2.81059 12.0112 -5.43596 -2.48736 -5.85747 0 1 0 
88 4 2 0.053 4.28563 13.7071 2.28736 1.00797 -5.65776 10.3259 4.84662 0 1 0 
22 4 1 0.053 12.6357 15.2014 13.9963 1.00797 0.880876 -11.7369 -5.92248 1 1 1 
82 4 2 0.053 6.11923 14.9894 0.974038 1.00797 1.20444 -42.3012 -4.60894 0 1 0 
4 3 1 -0.106 3.84841 17.1119 13.9929 12.0112 -22.2706 -17.3998 -19.5647 0 1 1 
36 3 1 -0.106 5.77713 17.3362 15.5955 12.0112 5.84683 20.2147 17.5446 0 1 1 
5 4 1 0.053 3.08219 17.235 14.7415 1.00797 -3.56441 8.55062 23.4807 0 1 1 
71 1 1 -0.5801 11.7256 14.0899 17.1237 14.0067 31.5345 -4.20464 27.1203 1 1 1 
72 2 1 0.2487 11.3691 14.9896 16.8798 1.00797 -3.57519 6.08724 -18.4258 1 1 1 
81 4 2 0.053 5.41229 13.3395 0.357869 1.00797 20.0421 16.7396 6.02274 0 1 0 
84 4 2 0.053 6.71875 13.9936 3.08681 1.00797 -0.599522 1.82561 -8.2357 0 1 0 
83 3 2 -0.106 6.35251 13.2371 2.36364 12.0112 -1.87763 5.63901 -4.67037 0 1 0 
2 4 1 0.053 5.84449 17.4397 13.4172 1.00797 3.15738 -6.70955 0.606258 0 1 1 
85 4 2 0.053 7.14228 12.4146 2.43636 1.00797 -28.8675 12.8857 -2.72648 0 1 0 
79 4 1 0.053 11.2514 12.4729 14.8732 1.00797 7.00368 5.78136 -0.731719 0 1 1 
80 3 2 -0.106 6.28717 13.8277 0.908456 12.0112 -6.67102 18.5154 14.7238 0 1 0 
115 3 2 -0.106 7.61479 13.4985 0.244427 12.0112 9.34781 -26.7242 -10.6341 0 1 0 
116 4 2 0.053 7.70606 12.3688 0.191649 1.00797 -1.42238 18.4049 1.11486 0 1 0 
117 4 2 0.053 8.39698 13.8287 0.913601 1.00797 14.2153 1.44599 4.86758 0 1 0 
20 3 1 -0.106 11.757 14.5194 14.0358 12.0112 -27.9891 -30.8845 -32.0023 1 1 1 
21 4 1 0.053 11.4355 14.2264 12.9458 1.00797 18.28 10.0558 32.9671 0 1 1 
23 3 1 -0.106 10.6217 15.3766 14.5915 12.0112 0.908508 -14.2712 22.5304 0 1 1 
25 4 1 0.053 10.2712 16.0901 13.8633 1.00797 4.72029 14.3989 -13.1733 0 1 1 
26 3 1 -0.106 9.38088 14.6771 15.1451 12.0112 14.4192 37.1453 33.8136 0 1 1 
27 4 1 0.053 9.64988 13.8765 15.8043 1.00797 0.317153 -16.1745 8.68342 0 1 1 
28 4 1 0.053 8.79781 14.2916 14.3658 1.00797 -24.1604 -12.0531 -24.9056 0 1 1 
31 7 1 -0.6503 8.15684 16.8474 15.3948 14.0067 4.37756 23.2355 -0.275605 0 1 1 
32 2 1 0.4395 8.43713 17.0061 14.448 1.00797 -1.73389 -5.69596 -4.20092 0 1 1 
24 4 1 0.053 11.0682 15.8859 15.4501 1.00797 1.09432 16.1233 -0.423135 0 1 1 
29 5 1 0.531 8.61903 15.7122 16.0467 12.0112 16.5716 -23.9961 -6.63967 0 1 1 
33 3 1 0.1048 7.23192 17.7994 15.9646 12.0112 -43.9566 -67.8745 60.4883 0 1 1 
89 5 2 0.531 4.23569 11.6805 2.33481 12.0112 19.9102 -62.6122 -35.9295 0 1 0 
1 3 1 -0.106 5.17558 17.74 14.2418 12.0112 33.57 17.6388 14.5986 0 1 1 
7 3 1 -0.106 3.2785 17.7565 12.7359 12.0112 -39.1764 37.9644 -22.5151 0 1 1 
8 4 1 0.053 2.56586 18.657 12.8935 1.00797 18.4038 -29.9549 11.5457 0 1 1 
3 4 1 0.053 5.16567 18.8542 14.1302 1.00797 -5.78912 -10.4248 7.23699 0 1 1 